 vasp.6.2.1 16May21 (build Aug  6 2022 02:00:27) complex                         
 executed on             LinuxGNU date 2022.09.17  15:06:20
 running on   32 total cores
 distrk:  each k-point on   32 cores,    1 groups
 distr:  one band on NCORE=   8 cores,    4 groups


--------------------------------------------------------------------------------------------------------


 INCAR:
   SYSTEM = MOF
   ISTART = 0
   ICHARG = 2
   LWAVE = .FALSE.
   LCHARG = .TRUE.
   LAECHG = .TRUE.
   NELMIN = 5
   NELMDL = -3
   NELM = 100
   ALGO = FAST
   EDIFF = 1E-05
   ISMEAR = 0
   SIGMA = 0.05
   ENCUT = 520
   LREAL = Auto
   PREC = Normal
   GGA_COMPAT = .FALSE.
   LMAXMIX = 6
   NSW = 0
   ISIF = 2
   IBRION = -1
   ISYM = 2
   ISPIN = 1
   LPLANE = .TRUE.
   NCORE = 8
   NSIM = 4

 POTCAR:    PAW_PBE C 08Apr2002                   
 POTCAR:    PAW_PBE H 15Jun2001                   
 POTCAR:    PAW_PBE In 08Apr2002                  
 POTCAR:    PAW_PBE O 08Apr2002                   
 POTCAR:    PAW_PBE S 06Sep2000                   
 POTCAR:    PAW_PBE C 08Apr2002                   
   VRHFIN =C: s2p2                                                                                  
   LEXCH  = PE                                                                                      
   EATOM  =   147.1560 eV,   10.8157 Ry                                                             
                                                                                                    
   TITEL  = PAW_PBE C 08Apr2002                                                                     
   LULTRA =        F    use ultrasoft PP ?                                                          
   IUNSCR =        1    unscreen: 0-lin 1-nonlin 2-no                                               
   RPACOR =    1.200    partial core radius                                                         
   POMASS =   12.011; ZVAL   =    4.000    mass and valenz                                          
   RCORE  =    1.500    outmost cutoff radius                                                       
   RWIGS  =    1.630; RWIGS  =    0.863    wigner-seitz radius (au A)                               
   ENMAX  =  400.000; ENMIN  =  300.000 eV                                                          
   ICORE  =        2    local potential                                                             
   LCOR   =        T    correct aug charges                                                         
   LPAW   =        T    paw PP                                                                      
   EAUG   =  644.873                                                                                
   DEXC   =    0.000                                                                                
   RMAX   =    1.529    core radius for proj-oper                                                   
   RAUG   =    1.300    factor for augmentation sphere                                              
   RDEP   =    1.501    radius for radial grids                                                     
   RDEPT  =    1.300    core radius for aug-charge                                                  
                                                                                                    
   Atomic configuration                                                                             
    4 entries                                                                                       
     n  l   j            E        occ.                                                              
     1  0  0.50      -273.3789   2.0000                                                             
     2  0  0.50       -13.7508   2.0000                                                             
     2  1  0.50        -5.2854   2.0000                                                             
     3  2  1.50        -5.4423   0.0000                                                             
   Description                                                                                      
     l       E           TYP  RCUT    TYP  RCUT                                                     
     0    -13.7508458     23  1.200                                                                 
     0     -8.2022199     23  1.200                                                                 
     1     -5.2854383     23  1.500                                                                 
     1     34.0145650     23  1.500                                                                 
     2     -5.4423304      7  1.500                                                                 
  local pseudopotential read in
  partial core-charges read in
  partial kinetic energy density read in
  atomic valenz-charges read in
  non local Contribution for L=           0  read in
    real space projection operators read in
  non local Contribution for L=           0  read in
    real space projection operators read in
  non local Contribution for L=           1  read in
    real space projection operators read in
  non local Contribution for L=           1  read in
    real space projection operators read in
    PAW grid and wavefunctions read in

   number of l-projection  operators is LMAX  =           4
   number of lm-projection operators is LMMAX =           8

 POTCAR:    PAW_PBE H 15Jun2001                   
   VRHFIN =H: ultrasoft test                                                                        
   LEXCH  = PE                                                                                      
   EATOM  =    12.4884 eV,    0.9179 Ry                                                             
                                                                                                    
   TITEL  = PAW_PBE H 15Jun2001                                                                     
   LULTRA =        F    use ultrasoft PP ?                                                          
   IUNSCR =        0    unscreen: 0-lin 1-nonlin 2-no                                               
   RPACOR =    0.000    partial core radius                                                         
   POMASS =    1.000; ZVAL   =    1.000    mass and valenz                                          
   RCORE  =    1.100    outmost cutoff radius                                                       
   RWIGS  =    0.700; RWIGS  =    0.370    wigner-seitz radius (au A)                               
   ENMAX  =  250.000; ENMIN  =  200.000 eV                                                          
   RCLOC  =    0.701    cutoff for local pot                                                        
   LCOR   =        T    correct aug charges                                                         
   LPAW   =        T    paw PP                                                                      
   EAUG   =  400.000                                                                                
   RMAX   =    1.123    core radius for proj-oper                                                   
   RAUG   =    1.200    factor for augmentation sphere                                              
   RDEP   =    1.112    radius for radial grids                                                     
   RDEPT  =    0.926    core radius for aug-charge                                                  
                                                                                                    
   Atomic configuration                                                                             
    2 entries                                                                                       
     n  l   j            E        occ.                                                              
     1  0  0.50        -6.4927   1.0000                                                             
     2  1  0.50        -3.4015   0.0000                                                             
   Description                                                                                      
     l       E           TYP  RCUT    TYP  RCUT                                                     
     0     -6.4927494     23  1.100                                                                 
     0      6.8029130     23  1.100                                                                 
     1     -4.0817478     23  1.100                                                                 
  local pseudopotential read in
  atomic valenz-charges read in
  non local Contribution for L=           0  read in
    real space projection operators read in
  non local Contribution for L=           0  read in
    real space projection operators read in
  non local Contribution for L=           1  read in
    real space projection operators read in
    PAW grid and wavefunctions read in

   number of l-projection  operators is LMAX  =           3
   number of lm-projection operators is LMMAX =           5

 POTCAR:    PAW_PBE In 08Apr2002                  
   VRHFIN =In: s2p1                                                                                 
   LEXCH  = PE                                                                                      
   EATOM  =    53.7908 eV,    3.9535 Ry                                                             
                                                                                                    
   TITEL  = PAW_PBE In 08Apr2002                                                                    
   LULTRA =        F    use ultrasoft PP ?                                                          
   IUNSCR =        1    unscreen: 0-lin 1-nonlin 2-no                                               
   RPACOR =    2.400    partial core radius                                                         
   POMASS =  114.820; ZVAL   =    3.000    mass and valenz                                          
   RCORE  =    3.100    outmost cutoff radius                                                       
   RWIGS  =    3.170; RWIGS  =    1.677    wigner-seitz radius (au A)                               
   ENMAX  =   95.934; ENMIN  =   71.951 eV                                                          
   ICORE  =        3    local potential                                                             
   LCOR   =        T    correct aug charges                                                         
   LPAW   =        T    paw PP                                                                      
   EAUG   =  237.125                                                                                
   DEXC   =    0.000                                                                                
   RMAX   =    3.168    core radius for proj-oper                                                   
   RAUG   =    1.300    factor for augmentation sphere                                              
   RDEP   =    3.187    radius for radial grids                                                     
   RDEPT  =    2.711    core radius for aug-charge                                                  
                                                                                                    
   Atomic configuration                                                                             
   13 entries                                                                                       
     n  l   j            E        occ.                                                              
     1  0  0.50    -27747.9169   2.0000                                                             
     2  0  0.50     -4154.4438   2.0000                                                             
     2  1  1.50     -3728.4305   6.0000                                                             
     3  0  0.50      -788.3680   2.0000                                                             
     3  1  1.50      -648.9215   6.0000                                                             
     3  2  2.50      -432.5893  10.0000                                                             
     4  0  0.50      -119.6363   2.0000                                                             
     4  1  1.50       -78.1086   6.0000                                                             
     4  2  2.50       -18.6227  10.0000                                                             
     5  0  0.50        -8.2107   2.0000                                                             
     5  1  0.50        -2.5185   1.0000                                                             
     5  2  2.50        -1.3606   0.0000                                                             
     4  3  2.50        -2.7212   0.0000                                                             
   Description                                                                                      
     l       E           TYP  RCUT    TYP  RCUT                                                     
     0     -8.2107306     23  3.100                                                                 
     0     -6.1485975     23  3.100                                                                 
     1     -2.5184867     23  3.100                                                                 
     1      3.2427302     23  3.100                                                                 
     2     -1.3605826     23  3.100                                                                 
     3     -1.3605826     23  3.100                                                                 
  local pseudopotential read in
  partial core-charges read in
  partial kinetic energy density read in
  atomic valenz-charges read in
  non local Contribution for L=           0  read in
    real space projection operators read in
  non local Contribution for L=           0  read in
    real space projection operators read in
  non local Contribution for L=           1  read in
    real space projection operators read in
  non local Contribution for L=           1  read in
    real space projection operators read in
  non local Contribution for L=           2  read in
    real space projection operators read in
    PAW grid and wavefunctions read in

   number of l-projection  operators is LMAX  =           5
   number of lm-projection operators is LMMAX =          13

 POTCAR:    PAW_PBE O 08Apr2002                   
   VRHFIN =O: s2p4                                                                                  
   LEXCH  = PE                                                                                      
   EATOM  =   432.3788 eV,   31.7789 Ry                                                             
                                                                                                    
   TITEL  = PAW_PBE O 08Apr2002                                                                     
   LULTRA =        F    use ultrasoft PP ?                                                          
   IUNSCR =        1    unscreen: 0-lin 1-nonlin 2-no                                               
   RPACOR =    1.200    partial core radius                                                         
   POMASS =   16.000; ZVAL   =    6.000    mass and valenz                                          
   RCORE  =    1.520    outmost cutoff radius                                                       
   RWIGS  =    1.550; RWIGS  =    0.820    wigner-seitz radius (au A)                               
   ENMAX  =  400.000; ENMIN  =  300.000 eV                                                          
   ICORE  =        2    local potential                                                             
   LCOR   =        T    correct aug charges                                                         
   LPAW   =        T    paw PP                                                                      
   EAUG   =  605.392                                                                                
   DEXC   =    0.000                                                                                
   RMAX   =    1.553    core radius for proj-oper                                                   
   RAUG   =    1.300    factor for augmentation sphere                                              
   RDEP   =    1.550    radius for radial grids                                                     
   RDEPT  =    1.329    core radius for aug-charge                                                  
                                                                                                    
   Atomic configuration                                                                             
    4 entries                                                                                       
     n  l   j            E        occ.                                                              
     1  0  0.50      -514.6923   2.0000                                                             
     2  0  0.50       -23.9615   2.0000                                                             
     2  1  0.50        -9.0305   4.0000                                                             
     3  2  1.50        -9.5241   0.0000                                                             
   Description                                                                                      
     l       E           TYP  RCUT    TYP  RCUT                                                     
     0    -23.9615318     23  1.200                                                                 
     0     -9.5240782     23  1.200                                                                 
     1     -9.0304911     23  1.520                                                                 
     1      8.1634956     23  1.520                                                                 
     2     -9.5240782      7  1.500                                                                 
  local pseudopotential read in
  partial core-charges read in
  partial kinetic energy density read in
  kinetic energy density of atom read in
  atomic valenz-charges read in
  non local Contribution for L=           0  read in
    real space projection operators read in
  non local Contribution for L=           0  read in
    real space projection operators read in
  non local Contribution for L=           1  read in
    real space projection operators read in
  non local Contribution for L=           1  read in
    real space projection operators read in
    PAW grid and wavefunctions read in

   number of l-projection  operators is LMAX  =           4
   number of lm-projection operators is LMMAX =           8

 POTCAR:    PAW_PBE S 06Sep2000                   
   VRHFIN =S : s2p4                                                                                 
   LEXCH  = PE                                                                                      
   EATOM  =   276.8230 eV,   20.3459 Ry                                                             
                                                                                                    
   TITEL  = PAW_PBE S 06Sep2000                                                                     
   LULTRA =        F    use ultrasoft PP ?                                                          
   IUNSCR =        1    unscreen: 0-lin 1-nonlin 2-no                                               
   RPACOR =    1.500    partial core radius                                                         
   POMASS =   32.066; ZVAL   =    6.000    mass and valenz                                          
   RCORE  =    1.900    outmost cutoff radius                                                       
   RWIGS  =    2.200; RWIGS  =    1.164    wigner-seitz radius (au A)                               
   ENMAX  =  258.689; ENMIN  =  194.016 eV                                                          
   ICORE  =        2    local potential                                                             
   LCOR   =        T    correct aug charges                                                         
   LPAW   =        T    paw PP                                                                      
   EAUG   =  335.092                                                                                
   DEXC   =    0.000                                                                                
   RMAX   =    1.942    core radius for proj-oper                                                   
   RAUG   =    1.300    factor for augmentation sphere                                              
   RDEP   =    1.954    radius for radial grids                                                     
   RDEPT  =    1.744    core radius for aug-charge                                                  
                                                                                                    
   Atomic configuration                                                                             
    6 entries                                                                                       
     n  l   j            E        occ.                                                              
     1  0  0.50     -2405.8406   2.0000                                                             
     2  0  0.50      -211.7007   2.0000                                                             
     2  1  1.50      -156.4958   6.0000                                                             
     3  0  0.50       -17.2562   2.0000                                                             
     3  1  0.50        -7.0085   4.0000                                                             
     3  2  1.50        -6.8029   0.0000                                                             
   Description                                                                                      
     l       E           TYP  RCUT    TYP  RCUT                                                     
     0    -17.2561641     23  1.900                                                                 
     0    -15.8743224     23  1.900                                                                 
     1     -7.0085400     23  1.900                                                                 
     1     -2.7779785     23  1.900                                                                 
     2     -6.8029130     23  1.900                                                                 
  local pseudopotential read in
  partial core-charges read in
  partial kinetic energy density read in
  atomic valenz-charges read in
  non local Contribution for L=           0  read in
    real space projection operators read in
  non local Contribution for L=           0  read in
    real space projection operators read in
  non local Contribution for L=           1  read in
    real space projection operators read in
  non local Contribution for L=           1  read in
    real space projection operators read in
    PAW grid and wavefunctions read in

   number of l-projection  operators is LMAX  =           4
   number of lm-projection operators is LMMAX =           8

 Optimization of the real space projectors (new method)

 maximal supplied QI-value         = 25.13
 optimisation between [QCUT,QGAM] = [ 11.56, 23.12] = [ 37.43,149.72] Ry 
 Optimized for a Real-space Cutoff    1.04 Angstroem

   l    n(q)    QCUT    max X(q) W(low)/X(q) W(high)/X(q)  e(spline) 
   0      7    11.561   115.676    0.20E-03    0.60E-03    0.21E-06
   0      7    11.561    87.132    0.20E-03    0.59E-03    0.21E-06
   1      7    11.561     4.429    0.23E-03    0.35E-03    0.15E-06
   1      7    11.561     2.733    0.18E-03    0.25E-03    0.12E-06
 Optimization of the real space projectors (new method)

 maximal supplied QI-value         = 34.20
 optimisation between [QCUT,QGAM] = [ 11.63, 23.26] = [ 37.87,151.49] Ry 
 Optimized for a Real-space Cutoff    1.14 Angstroem

   l    n(q)    QCUT    max X(q) W(low)/X(q) W(high)/X(q)  e(spline) 
   0      8    11.629    19.460    0.27E-03    0.65E-03    0.17E-06
   0      8    11.629    12.209    0.25E-03    0.62E-03    0.16E-06
   1      7    11.629     4.655    0.29E-03    0.85E-04    0.19E-06
 Optimization of the real space projectors (new method)

 maximal supplied QI-value         = 12.09
 optimisation between [QCUT,QGAM] = [ 11.61, 23.34] = [ 37.75,152.57] Ry 
 Optimized for a Real-space Cutoff    1.63 Angstroem

   l    n(q)    QCUT    max X(q) W(low)/X(q) W(high)/X(q)  e(spline) 
   0     11    11.610   106.980    0.35E-03    0.79E-04    0.41E-05
   0     11    11.610    81.086    0.38E-03    0.87E-04    0.45E-05
   1     11    11.610    53.097    0.27E-03    0.63E-03    0.23E-05
   1     11    11.610    32.621    0.25E-03    0.59E-03    0.21E-05
   2     10    11.610     8.820    0.33E-03    0.46E-04    0.69E-06
 Optimization of the real space projectors (new method)

 maximal supplied QI-value         = 24.76
 optimisation between [QCUT,QGAM] = [ 11.64, 23.27] = [ 37.91,151.63] Ry 
 Optimized for a Real-space Cutoff    1.04 Angstroem

   l    n(q)    QCUT    max X(q) W(low)/X(q) W(high)/X(q)  e(spline) 
   0      7    11.635    20.381    0.14E-03    0.49E-03    0.18E-06
   0      7    11.635    15.268    0.16E-03    0.52E-03    0.19E-06
   1      7    11.635     5.964    0.30E-03    0.44E-03    0.22E-06
   1      7    11.635     5.382    0.27E-03    0.34E-03    0.19E-06
 Optimization of the real space projectors (new method)

 maximal supplied QI-value         = 19.84
 optimisation between [QCUT,QGAM] = [ 11.51, 23.22] = [ 37.09,150.92] Ry 
 Optimized for a Real-space Cutoff    1.18 Angstroem

   l    n(q)    QCUT    max X(q) W(low)/X(q) W(high)/X(q)  e(spline) 
   0      8    11.508   187.594    0.17E-03    0.26E-03    0.48E-07
   0      8    11.508   164.243    0.17E-03    0.26E-03    0.48E-07
   1      8    11.508    67.533    0.38E-03    0.13E-03    0.91E-07
   1      8    11.508    50.729    0.37E-03    0.12E-03    0.89E-07
  PAW_PBE C 08Apr2002                   :
 energy of atom  1       EATOM= -147.1560
 kinetic energy error for atom=    0.0071 (will be added to EATOM!!)
  PAW_PBE H 15Jun2001                   :
 energy of atom  2       EATOM=  -12.4884
 kinetic energy error for atom=    0.0014 (will be added to EATOM!!)
  PAW_PBE In 08Apr2002                  :
 energy of atom  3       EATOM=  -53.7908
 kinetic energy error for atom=    0.0000 (will be added to EATOM!!)
  PAW_PBE O 08Apr2002                   :
 energy of atom  4       EATOM= -432.3788
 kinetic energy error for atom=    0.0208 (will be added to EATOM!!)
  PAW_PBE S 06Sep2000                   :
 energy of atom  5       EATOM= -276.8230
 kinetic energy error for atom=    0.0016 (will be added to EATOM!!)


 POSCAR: ABEXEN_clean
  positions in cartesian coordinates
  No initial velocities read in
 exchange correlation table for  LEXCH =        8
   RHO(1)=    0.500       N(1)  =     2000
   RHO(2)=  100.500       N(2)  =     4000



--------------------------------------------------------------------------------------------------------


 ion  position               nearest neighbor table
   1  0.661  0.183  0.085- 374 1.24 373 1.27   2 1.49 361 2.63
   2  0.647  0.193  0.134-   4 1.37   3 1.39   1 1.49
   3  0.673  0.181  0.172- 241 0.93   2 1.39   5 1.40
   4  0.606  0.215  0.142- 242 0.93   2 1.37   6 1.39
   5  0.656  0.187  0.218- 243 0.93   7 1.38   3 1.40
   6  0.590  0.221  0.187- 244 0.93   7 1.38   4 1.39
   7  0.614  0.207  0.226-   6 1.38   5 1.38  77 1.49
   8  0.817  0.478  0.085- 376 1.24 375 1.27   9 1.49 362 2.63
   9  0.807  0.453  0.134-  11 1.37  10 1.39   8 1.49
  10  0.819  0.492  0.172- 245 0.93   9 1.39  12 1.40
  11  0.785  0.392  0.142- 246 0.93   9 1.37  13 1.39
  12  0.813  0.469  0.218- 247 0.93  14 1.38  10 1.40
  13  0.779  0.369  0.187- 248 0.93  14 1.38  11 1.39
  14  0.794  0.408  0.226-  13 1.38  12 1.38  70 1.49
  15  0.522  0.339  0.085- 378 1.24 377 1.27  16 1.49 363 2.63
  16  0.547  0.353  0.134-  18 1.37  17 1.39  15 1.49
  17  0.508  0.327  0.172- 249 0.93  16 1.39  19 1.40
  18  0.608  0.394  0.142- 250 0.93  16 1.37  20 1.39
  19  0.531  0.344  0.218- 251 0.93  21 1.38  17 1.40
  20  0.631  0.410  0.187- 252 0.93  21 1.38  18 1.39
  21  0.592  0.386  0.226-  20 1.38  19 1.38  84 1.49
  22  0.339  0.817  0.085- 380 1.24 379 1.27  23 1.49 364 2.63
  23  0.353  0.807  0.134-  25 1.37  24 1.39  22 1.49
  24  0.327  0.819  0.172- 253 0.93  23 1.39  26 1.40
  25  0.394  0.785  0.142- 254 0.93  23 1.37  27 1.39
  26  0.344  0.813  0.218- 255 0.93  28 1.38  24 1.40
  27  0.410  0.779  0.187- 256 0.93  28 1.38  25 1.39
  28  0.386  0.793  0.226-  27 1.38  26 1.38  56 1.49
  29  0.183  0.522  0.085- 382 1.24 381 1.27  30 1.49 365 2.63
  30  0.193  0.547  0.134-  32 1.37  31 1.39  29 1.49
  31  0.181  0.508  0.172- 257 0.93  30 1.39  33 1.40
  32  0.215  0.608  0.142- 258 0.93  30 1.37  34 1.39
  33  0.187  0.531  0.218- 259 0.93  35 1.38  31 1.40
  34  0.221  0.631  0.187- 260 0.93  35 1.38  32 1.39
  35  0.206  0.592  0.226-  34 1.38  33 1.38  49 1.49
  36  0.478  0.661  0.085- 384 1.24 383 1.27  37 1.49 366 2.63
  37  0.453  0.647  0.134-  39 1.37  38 1.39  36 1.49
  38  0.492  0.673  0.172- 261 0.93  37 1.39  40 1.40
  39  0.392  0.606  0.142- 262 0.93  37 1.37  41 1.39
  40  0.469  0.656  0.218- 263 0.93  42 1.38  38 1.40
  41  0.369  0.590  0.187- 264 0.93  42 1.38  39 1.39
  42  0.408  0.614  0.226-  41 1.38  40 1.38  63 1.49
  43  0.183  0.661  0.415- 386 1.24 385 1.27  44 1.49 367 2.63
  44  0.193  0.647  0.366-  46 1.37  45 1.39  43 1.49
  45  0.181  0.673  0.328- 265 0.93  44 1.39  47 1.40
  46  0.215  0.606  0.358- 266 0.93  44 1.37  48 1.39
  47  0.187  0.656  0.282- 267 0.93  49 1.38  45 1.40
  48  0.221  0.590  0.313- 268 0.93  49 1.38  46 1.39
  49  0.206  0.614  0.274-  48 1.38  47 1.38  35 1.49
  50  0.478  0.817  0.415- 388 1.24 387 1.27  51 1.49 368 2.63
  51  0.453  0.807  0.366-  53 1.37  52 1.39  50 1.49
  52  0.492  0.819  0.328- 269 0.93  51 1.39  54 1.40
  53  0.392  0.785  0.358- 270 0.93  51 1.37  55 1.39
  54  0.469  0.813  0.282- 271 0.93  56 1.38  52 1.40
  55  0.369  0.779  0.313- 272 0.93  56 1.38  53 1.39
  56  0.408  0.793  0.274-  55 1.38  54 1.38  28 1.49
  57  0.339  0.522  0.415- 390 1.24 389 1.27  58 1.49 369 2.63
  58  0.353  0.547  0.366-  60 1.37  59 1.39  57 1.49
  59  0.327  0.508  0.328- 273 0.93  58 1.39  61 1.40
  60  0.394  0.608  0.358- 274 0.93  58 1.37  62 1.39
  61  0.344  0.531  0.282- 275 0.93  63 1.38  59 1.40
  62  0.410  0.631  0.313- 276 0.93  63 1.38  60 1.39
  63  0.386  0.592  0.274-  62 1.38  61 1.38  42 1.49
  64  0.817  0.339  0.415- 392 1.24 391 1.27  65 1.49 370 2.63
  65  0.807  0.353  0.366-  67 1.37  66 1.39  64 1.49
  66  0.819  0.327  0.328- 277 0.93  65 1.39  68 1.40
  67  0.785  0.394  0.358- 278 0.93  65 1.37  69 1.39
  68  0.813  0.344  0.282- 279 0.93  70 1.38  66 1.40
  69  0.779  0.410  0.313- 280 0.93  70 1.38  67 1.39
  70  0.793  0.386  0.274-  69 1.38  68 1.38  14 1.49
  71  0.522  0.183  0.415- 394 1.24 393 1.27  72 1.49 371 2.63
  72  0.547  0.193  0.366-  74 1.37  73 1.39  71 1.49
  73  0.508  0.181  0.328- 281 0.93  72 1.39  75 1.40
  74  0.608  0.215  0.358- 282 0.93  72 1.37  76 1.39
  75  0.531  0.187  0.282- 283 0.93  77 1.38  73 1.40
  76  0.631  0.221  0.313- 284 0.93  77 1.38  74 1.39
  77  0.592  0.207  0.274-  76 1.38  75 1.38   7 1.49
  78  0.661  0.478  0.415- 396 1.24 395 1.27  79 1.49 372 2.63
  79  0.647  0.453  0.366-  81 1.37  80 1.39  78 1.49
  80  0.673  0.492  0.328- 285 0.93  79 1.39  82 1.40
  81  0.606  0.392  0.358- 286 0.93  79 1.37  83 1.39
  82  0.656  0.469  0.282- 287 0.93  84 1.38  80 1.40
  83  0.590  0.369  0.313- 288 0.93  84 1.38  81 1.39
  84  0.614  0.408  0.274-  83 1.38  82 1.38  21 1.49
  85  0.339  0.817  0.915- 398 1.24 397 1.27  86 1.49 364 2.63
  86  0.353  0.807  0.866-  88 1.37  87 1.39  85 1.49
  87  0.327  0.819  0.828- 289 0.93  86 1.39  89 1.40
  88  0.394  0.785  0.858- 290 0.93  86 1.37  90 1.39
  89  0.344  0.813  0.782- 291 0.93  91 1.38  87 1.40
  90  0.410  0.779  0.813- 292 0.93  91 1.38  88 1.39
  91  0.386  0.793  0.774-  90 1.38  89 1.38 161 1.49
  92  0.183  0.522  0.915- 400 1.24 399 1.27  93 1.49 365 2.63
  93  0.193  0.547  0.866-  95 1.37  94 1.39  92 1.49
  94  0.181  0.508  0.828- 293 0.93  93 1.39  96 1.40
  95  0.215  0.608  0.858- 294 0.93  93 1.37  97 1.39
  96  0.187  0.531  0.782- 295 0.93  98 1.38  94 1.40
  97  0.221  0.631  0.813- 296 0.93  98 1.38  95 1.39
  98  0.206  0.592  0.774-  97 1.38  96 1.38 154 1.49
  99  0.478  0.661  0.915- 402 1.24 401 1.27 100 1.49 366 2.63
 100  0.453  0.647  0.866- 102 1.37 101 1.39  99 1.49
 101  0.492  0.673  0.828- 297 0.93 100 1.39 103 1.40
 102  0.392  0.606  0.858- 298 0.93 100 1.37 104 1.39
 103  0.469  0.656  0.782- 299 0.93 105 1.38 101 1.40
 104  0.369  0.590  0.813- 300 0.93 105 1.38 102 1.39
 105  0.408  0.614  0.774- 104 1.38 103 1.38 168 1.49
 106  0.661  0.183  0.915- 404 1.24 403 1.27 107 1.49 361 2.63
 107  0.647  0.193  0.866- 109 1.37 108 1.39 106 1.49
 108  0.673  0.181  0.828- 301 0.93 107 1.39 110 1.40
 109  0.606  0.215  0.858- 302 0.93 107 1.37 111 1.39
 110  0.656  0.187  0.782- 303 0.93 112 1.38 108 1.40
 111  0.590  0.221  0.813- 304 0.93 112 1.38 109 1.39
 112  0.614  0.207  0.774- 111 1.38 110 1.38 140 1.49
 113  0.817  0.478  0.915- 406 1.24 405 1.27 114 1.49 362 2.63
 114  0.807  0.453  0.866- 116 1.37 115 1.39 113 1.49
 115  0.819  0.492  0.828- 305 0.93 114 1.39 117 1.40
 116  0.785  0.392  0.858- 306 0.93 114 1.37 118 1.39
 117  0.813  0.469  0.782- 307 0.93 119 1.38 115 1.40
 118  0.779  0.369  0.813- 308 0.93 119 1.38 116 1.39
 119  0.794  0.408  0.774- 118 1.38 117 1.38 133 1.49
 120  0.522  0.339  0.915- 408 1.24 407 1.27 121 1.49 363 2.63
 121  0.547  0.353  0.866- 123 1.37 122 1.39 120 1.49
 122  0.508  0.327  0.828- 309 0.93 121 1.39 124 1.40
 123  0.608  0.394  0.858- 310 0.93 121 1.37 125 1.39
 124  0.531  0.344  0.782- 311 0.93 126 1.38 122 1.40
 125  0.631  0.410  0.813- 312 0.93 126 1.38 123 1.39
 126  0.592  0.386  0.774- 125 1.38 124 1.38 147 1.49
 127  0.817  0.339  0.585- 410 1.24 409 1.27 128 1.49 370 2.63
 128  0.807  0.353  0.634- 130 1.37 129 1.39 127 1.49
 129  0.819  0.327  0.672- 313 0.93 128 1.39 131 1.40
 130  0.785  0.394  0.642- 314 0.93 128 1.37 132 1.39
 131  0.813  0.344  0.718- 315 0.93 133 1.38 129 1.40
 132  0.779  0.410  0.687- 316 0.93 133 1.38 130 1.39
 133  0.793  0.386  0.726- 132 1.38 131 1.38 119 1.49
 134  0.522  0.183  0.585- 412 1.24 411 1.27 135 1.49 371 2.63
 135  0.547  0.193  0.634- 137 1.37 136 1.39 134 1.49
 136  0.508  0.181  0.672- 317 0.93 135 1.39 138 1.40
 137  0.608  0.215  0.642- 318 0.93 135 1.37 139 1.39
 138  0.531  0.187  0.718- 319 0.93 140 1.38 136 1.40
 139  0.631  0.221  0.687- 320 0.93 140 1.38 137 1.39
 140  0.592  0.207  0.726- 139 1.38 138 1.38 112 1.49
 141  0.661  0.478  0.585- 414 1.24 413 1.27 142 1.49 372 2.63
 142  0.647  0.453  0.634- 144 1.37 143 1.39 141 1.49
 143  0.673  0.492  0.672- 321 0.93 142 1.39 145 1.40
 144  0.606  0.392  0.642- 322 0.93 142 1.37 146 1.39
 145  0.656  0.469  0.718- 323 0.93 147 1.38 143 1.40
 146  0.590  0.369  0.687- 324 0.93 147 1.38 144 1.39
 147  0.614  0.408  0.726- 146 1.38 145 1.38 126 1.49
 148  0.183  0.661  0.585- 416 1.24 415 1.27 149 1.49 367 2.63
 149  0.193  0.647  0.634- 151 1.37 150 1.39 148 1.49
 150  0.181  0.673  0.672- 325 0.93 149 1.39 152 1.40
 151  0.215  0.606  0.642- 326 0.93 149 1.37 153 1.39
 152  0.187  0.656  0.718- 327 0.93 154 1.38 150 1.40
 153  0.221  0.590  0.687- 328 0.93 154 1.38 151 1.39
 154  0.206  0.614  0.726- 153 1.38 152 1.38  98 1.49
 155  0.478  0.817  0.585- 418 1.24 417 1.27 156 1.49 368 2.63
 156  0.453  0.807  0.634- 158 1.37 157 1.39 155 1.49
 157  0.492  0.819  0.672- 329 0.93 156 1.39 159 1.40
 158  0.392  0.785  0.642- 330 0.93 156 1.37 160 1.39
 159  0.469  0.813  0.718- 331 0.93 161 1.38 157 1.40
 160  0.369  0.779  0.687- 332 0.93 161 1.38 158 1.39
 161  0.408  0.793  0.726- 160 1.38 159 1.38  91 1.49
 162  0.339  0.522  0.585- 420 1.24 419 1.27 163 1.49 369 2.63
 163  0.353  0.547  0.634- 165 1.37 164 1.39 162 1.49
 164  0.327  0.508  0.672- 333 0.93 163 1.39 166 1.40
 165  0.394  0.608  0.642- 334 0.93 163 1.37 167 1.39
 166  0.344  0.531  0.718- 335 0.93 168 1.38 164 1.40
 167  0.410  0.631  0.687- 336 0.93 168 1.38 165 1.39
 168  0.386  0.592  0.726- 167 1.38 166 1.38 105 1.49
 169  0.801  0.255  0.000- 422 1.25 424 1.25 170 1.48 361 2.62
 170  0.863  0.310  0.000- 173 1.35 169 1.48 469 1.71
 171  0.974  0.381  0.000- 174 1.38 172 1.46 469 1.70
 172  0.042  0.412  0.000- 421 1.26 423 1.26 171 1.46 365 2.64
 173  0.878  0.369  0.000- 337 0.93 170 1.35 174 1.37
 174  0.940  0.409  0.000- 338 0.93 173 1.37 171 1.38
 175  0.745  0.546  0.000- 426 1.25 428 1.25 176 1.48 362 2.62
 176  0.690  0.554  0.000- 179 1.35 175 1.48 470 1.71
 177  0.619  0.593  0.000- 180 1.38 178 1.46 470 1.70
 178  0.588  0.630  0.000- 425 1.26 427 1.26 177 1.46 366 2.64
 179  0.631  0.508  0.000- 339 0.93 176 1.35 180 1.37
 180  0.591  0.530  0.000- 340 0.93 179 1.37 177 1.38
 181  0.454  0.199  0.000- 430 1.25 432 1.25 182 1.48 363 2.62
 182  0.446  0.137  0.000- 185 1.35 181 1.48 471 1.71
 183  0.407  0.026  0.000- 186 1.38 184 1.46 471 1.70
 184  0.370  0.958  0.000- 429 1.26 431 1.26 183 1.46 364 2.64
 185  0.492  0.122  0.000- 341 0.93 182 1.35 186 1.37
 186  0.470  0.060  0.000- 342 0.93 185 1.37 183 1.38
 187  0.199  0.745  0.000- 434 1.25 436 1.25 188 1.48 364 2.62
 188  0.137  0.690  0.000- 191 1.35 187 1.48 472 1.71
 189  0.026  0.619  0.000- 192 1.38 190 1.46 472 1.70
 190  0.958  0.588  0.000- 433 1.26 435 1.26 189 1.46 362 2.64
 191  0.122  0.631  0.000- 343 0.93 188 1.35 192 1.37
 192  0.060  0.591  0.000- 344 0.93 191 1.37 189 1.38
 193  0.255  0.454  0.000- 438 1.25 440 1.25 194 1.48 365 2.62
 194  0.310  0.446  0.000- 197 1.35 193 1.48 473 1.71
 195  0.381  0.407  0.000- 198 1.38 196 1.46 473 1.70
 196  0.412  0.370  0.000- 437 1.26 439 1.26 195 1.46 363 2.64
 197  0.369  0.492  0.000- 345 0.93 194 1.35 198 1.37
 198  0.409  0.470  0.000- 346 0.93 197 1.37 195 1.38
 199  0.546  0.801  0.000- 442 1.25 444 1.25 200 1.48 366 2.62
 200  0.554  0.863  0.000- 203 1.35 199 1.48 474 1.71
 201  0.593  0.974  0.000- 204 1.38 202 1.46 474 1.70
 202  0.630  0.042  0.000- 441 1.26 443 1.26 201 1.46 361 2.64
 203  0.508  0.878  0.000- 347 0.93 200 1.35 204 1.37
 204  0.530  0.940  0.000- 348 0.93 203 1.37 201 1.38
 205  0.255  0.801  0.500- 446 1.25 448 1.25 206 1.48 367 2.62
 206  0.310  0.863  0.500- 209 1.35 205 1.48 475 1.71
 207  0.381  0.974  0.500- 210 1.38 208 1.46 475 1.70
 208  0.412  0.042  0.500- 445 1.26 447 1.26 207 1.46 371 2.64
 209  0.369  0.878  0.500- 349 0.93 206 1.35 210 1.37
 210  0.409  0.940  0.500- 350 0.93 209 1.37 207 1.38
 211  0.546  0.745  0.500- 450 1.25 452 1.25 212 1.48 368 2.62
 212  0.554  0.690  0.500- 215 1.35 211 1.48 476 1.71
 213  0.594  0.619  0.500- 216 1.38 214 1.46 476 1.70
 214  0.630  0.588  0.500- 449 1.26 451 1.26 213 1.46 372 2.64
 215  0.508  0.631  0.500- 351 0.93 212 1.35 216 1.37
 216  0.530  0.591  0.500- 352 0.93 215 1.37 213 1.38
 217  0.199  0.454  0.500- 454 1.25 456 1.25 218 1.48 369 2.62
 218  0.137  0.446  0.500- 221 1.35 217 1.48 477 1.71
 219  0.026  0.407  0.500- 222 1.38 220 1.46 477 1.70
 220  0.958  0.370  0.500- 453 1.26 455 1.26 219 1.46 370 2.64
 221  0.123  0.492  0.500- 353 0.93 218 1.35 222 1.37
 222  0.060  0.470  0.500- 354 0.93 221 1.37 219 1.38
 223  0.745  0.199  0.500- 458 1.25 460 1.25 224 1.48 370 2.62
 224  0.690  0.137  0.500- 227 1.35 223 1.48 478 1.71
 225  0.619  0.026  0.500- 228 1.38 226 1.46 478 1.70
 226  0.588  0.958  0.500- 457 1.26 459 1.26 225 1.46 368 2.64
 227  0.631  0.122  0.500- 355 0.93 224 1.35 228 1.37
 228  0.591  0.060  0.500- 356 0.93 227 1.37 225 1.38
 229  0.454  0.255  0.500- 462 1.25 464 1.25 230 1.48 371 2.62
 230  0.446  0.310  0.500- 233 1.35 229 1.48 479 1.71
 231  0.406  0.381  0.500- 234 1.38 232 1.46 479 1.70
 232  0.370  0.412  0.500- 461 1.26 463 1.26 231 1.46 369 2.64
 233  0.492  0.369  0.500- 357 0.93 230 1.35 234 1.37
 234  0.470  0.409  0.500- 358 0.93 233 1.37 231 1.38
 235  0.801  0.546  0.500- 466 1.25 468 1.25 236 1.48 372 2.62
 236  0.863  0.554  0.500- 239 1.35 235 1.48 480 1.71
 237  0.974  0.593  0.500- 240 1.38 238 1.46 480 1.70
 238  0.042  0.630  0.500- 465 1.26 467 1.26 237 1.46 367 2.64
 239  0.877  0.508  0.500- 359 0.93 236 1.35 240 1.37
 240  0.940  0.530  0.500- 360 0.93 239 1.37 237 1.38
 241  0.702  0.169  0.168-   3 0.93
 242  0.590  0.225  0.117-   4 0.93
 243  0.674  0.178  0.243-   5 0.93
 244  0.563  0.236  0.192-   6 0.93
 245  0.831  0.533  0.168-  10 0.93
 246  0.775  0.365  0.117-  11 0.93
 247  0.822  0.495  0.243-  12 0.93
 248  0.764  0.327  0.192-  13 0.93
 249  0.467  0.298  0.168-  17 0.93
 250  0.635  0.410  0.117-  18 0.93
 251  0.505  0.326  0.243-  19 0.93
 252  0.673  0.437  0.192-  20 0.93
 253  0.298  0.831  0.168-  24 0.93
 254  0.410  0.775  0.117-  25 0.93
 255  0.326  0.821  0.243-  26 0.93
 256  0.437  0.764  0.192-  27 0.93
 257  0.169  0.467  0.168-  31 0.93
 258  0.225  0.635  0.117-  32 0.93
 259  0.178  0.505  0.243-  33 0.93
 260  0.236  0.673  0.192-  34 0.93
 261  0.533  0.702  0.168-  38 0.93
 262  0.365  0.590  0.117-  39 0.93
 263  0.495  0.674  0.243-  40 0.93
 264  0.327  0.563  0.192-  41 0.93
 265  0.169  0.702  0.332-  45 0.93
 266  0.225  0.590  0.383-  46 0.93
 267  0.178  0.674  0.257-  47 0.93
 268  0.236  0.563  0.308-  48 0.93
 269  0.533  0.831  0.332-  52 0.93
 270  0.365  0.775  0.383-  53 0.93
 271  0.495  0.821  0.257-  54 0.93
 272  0.327  0.764  0.308-  55 0.93
 273  0.298  0.467  0.332-  59 0.93
 274  0.410  0.635  0.383-  60 0.93
 275  0.326  0.505  0.257-  61 0.93
 276  0.437  0.673  0.308-  62 0.93
 277  0.831  0.298  0.332-  66 0.93
 278  0.775  0.410  0.383-  67 0.93
 279  0.822  0.326  0.257-  68 0.93
 280  0.764  0.437  0.308-  69 0.93
 281  0.467  0.169  0.332-  73 0.93
 282  0.635  0.225  0.383-  74 0.93
 283  0.505  0.178  0.257-  75 0.93
 284  0.673  0.236  0.308-  76 0.93
 285  0.702  0.533  0.332-  80 0.93
 286  0.590  0.365  0.383-  81 0.93
 287  0.674  0.495  0.257-  82 0.93
 288  0.563  0.327  0.308-  83 0.93
 289  0.298  0.831  0.832-  87 0.93
 290  0.410  0.775  0.883-  88 0.93
 291  0.326  0.821  0.757-  89 0.93
 292  0.437  0.764  0.808-  90 0.93
 293  0.169  0.467  0.832-  94 0.93
 294  0.225  0.635  0.883-  95 0.93
 295  0.178  0.505  0.757-  96 0.93
 296  0.236  0.673  0.808-  97 0.93
 297  0.533  0.702  0.832- 101 0.93
 298  0.365  0.590  0.883- 102 0.93
 299  0.495  0.674  0.757- 103 0.93
 300  0.327  0.563  0.808- 104 0.93
 301  0.702  0.169  0.832- 108 0.93
 302  0.590  0.225  0.883- 109 0.93
 303  0.674  0.178  0.757- 110 0.93
 304  0.563  0.236  0.808- 111 0.93
 305  0.831  0.533  0.832- 115 0.93
 306  0.775  0.365  0.883- 116 0.93
 307  0.822  0.495  0.757- 117 0.93
 308  0.764  0.327  0.808- 118 0.93
 309  0.467  0.298  0.832- 122 0.93
 310  0.635  0.410  0.883- 123 0.93
 311  0.505  0.326  0.757- 124 0.93
 312  0.673  0.437  0.808- 125 0.93
 313  0.831  0.298  0.668- 129 0.93
 314  0.775  0.410  0.617- 130 0.93
 315  0.822  0.326  0.743- 131 0.93
 316  0.764  0.437  0.692- 132 0.93
 317  0.467  0.169  0.668- 136 0.93
 318  0.635  0.225  0.617- 137 0.93
 319  0.505  0.178  0.743- 138 0.93
 320  0.673  0.236  0.692- 139 0.93
 321  0.702  0.533  0.668- 143 0.93
 322  0.590  0.365  0.617- 144 0.93
 323  0.674  0.495  0.743- 145 0.93
 324  0.563  0.327  0.692- 146 0.93
 325  0.169  0.702  0.668- 150 0.93
 326  0.225  0.590  0.617- 151 0.93
 327  0.178  0.674  0.743- 152 0.93
 328  0.236  0.563  0.692- 153 0.93
 329  0.533  0.831  0.668- 157 0.93
 330  0.365  0.775  0.617- 158 0.93
 331  0.495  0.821  0.743- 159 0.93
 332  0.327  0.764  0.692- 160 0.93
 333  0.298  0.467  0.668- 164 0.93
 334  0.410  0.635  0.617- 165 0.93
 335  0.326  0.505  0.743- 166 0.93
 336  0.437  0.673  0.692- 167 0.93
 337  0.848  0.381  0.000- 173 0.93
 338  0.957  0.452  0.000- 174 0.93
 339  0.619  0.467  0.000- 179 0.93
 340  0.548  0.505  0.000- 180 0.93
 341  0.533  0.152  0.000- 185 0.93
 342  0.495  0.043  0.000- 186 0.93
 343  0.152  0.619  0.000- 191 0.93
 344  0.043  0.548  0.000- 192 0.93
 345  0.381  0.533  0.000- 197 0.93
 346  0.452  0.495  0.000- 198 0.93
 347  0.467  0.848  0.000- 203 0.93
 348  0.505  0.957  0.000- 204 0.93
 349  0.381  0.848  0.500- 209 0.93
 350  0.452  0.957  0.500- 210 0.93
 351  0.467  0.619  0.500- 215 0.93
 352  0.505  0.548  0.500- 216 0.93
 353  0.152  0.533  0.500- 221 0.93
 354  0.043  0.495  0.500- 222 0.93
 355  0.619  0.152  0.500- 227 0.93
 356  0.548  0.043  0.500- 228 0.93
 357  0.533  0.381  0.500- 233 0.93
 358  0.495  0.452  0.500- 234 0.93
 359  0.848  0.467  0.500- 239 0.93
 360  0.957  0.505  0.500- 240 0.93
 361  0.688  0.163  0.000- 443 2.21 424 2.25 373 2.26 403 2.26 422 2.31 404 2.32 374 2.32 441 2.36
                           169 2.62 106 2.63   1 2.63 202 2.64
 362  0.837  0.525  0.000- 435 2.21 428 2.25 375 2.26 405 2.26 426 2.31 406 2.32 376 2.32 433 2.36
                           175 2.62 113 2.63   8 2.63 190 2.64
 363  0.475  0.312  0.000- 439 2.21 432 2.25 377 2.26 407 2.26 430 2.31 408 2.32 378 2.32 437 2.36
                           181 2.62 120 2.63  15 2.63 196 2.64
 364  0.312  0.837  0.000- 431 2.21 436 2.25 379 2.26 397 2.26 434 2.31 398 2.32 380 2.32 429 2.36
                           187 2.62  85 2.63  22 2.63 184 2.64
 365  0.163  0.475  0.000- 423 2.21 440 2.25 381 2.26 399 2.26 438 2.31 400 2.32 382 2.32 421 2.36
                           193 2.62  92 2.63  29 2.63 172 2.64
 366  0.525  0.688  0.000- 427 2.21 444 2.25 383 2.26 401 2.26 442 2.31 402 2.32 384 2.32 425 2.36
                           199 2.62  99 2.63  36 2.63 178 2.64
 367  0.163  0.688  0.500- 467 2.21 448 2.25 385 2.26 415 2.26 446 2.31 416 2.32 386 2.32 465 2.36
                           205 2.62 148 2.63  43 2.63 238 2.64
 368  0.525  0.837  0.500- 459 2.21 452 2.25 387 2.26 417 2.26 450 2.31 418 2.32 388 2.32 457 2.36
                           211 2.62 155 2.63  50 2.63 226 2.64
 369  0.312  0.475  0.500- 463 2.21 456 2.25 389 2.26 419 2.26 454 2.31 420 2.32 390 2.32 461 2.36
                           217 2.62 162 2.63  57 2.63 232 2.64
 370  0.837  0.312  0.500- 455 2.21 460 2.25 391 2.26 409 2.26 458 2.31 410 2.32 392 2.32 453 2.36
                           223 2.62 127 2.63  64 2.63 220 2.64
 371  0.475  0.163  0.500- 447 2.21 464 2.25 393 2.26 411 2.26 462 2.31 412 2.32 394 2.32 445 2.36
                           229 2.62 134 2.63  71 2.63 208 2.64
 372  0.688  0.525  0.500- 451 2.21 468 2.25 395 2.26 413 2.26 466 2.31 414 2.32 396 2.32 449 2.36
                           235 2.62 141 2.63  78 2.63 214 2.64
 373  0.697  0.162  0.079-   1 1.27 361 2.26
 374  0.636  0.193  0.051-   1 1.24 361 2.32
 375  0.838  0.535  0.079-   8 1.27 362 2.26
 376  0.807  0.443  0.051-   8 1.24 362 2.32
 377  0.465  0.303  0.079-  15 1.27 363 2.26
 378  0.557  0.364  0.051-  15 1.24 363 2.32
 379  0.303  0.838  0.079-  22 1.27 364 2.26
 380  0.364  0.807  0.051-  22 1.24 364 2.32
 381  0.162  0.465  0.079-  29 1.27 365 2.26
 382  0.193  0.557  0.051-  29 1.24 365 2.32
 383  0.535  0.697  0.079-  36 1.27 366 2.26
 384  0.443  0.636  0.051-  36 1.24 366 2.32
 385  0.162  0.697  0.421-  43 1.27 367 2.26
 386  0.193  0.636  0.449-  43 1.24 367 2.32
 387  0.535  0.838  0.421-  50 1.27 368 2.26
 388  0.443  0.807  0.449-  50 1.24 368 2.32
 389  0.303  0.465  0.421-  57 1.27 369 2.26
 390  0.364  0.557  0.449-  57 1.24 369 2.32
 391  0.838  0.303  0.421-  64 1.27 370 2.26
 392  0.807  0.364  0.449-  64 1.24 370 2.32
 393  0.465  0.162  0.421-  71 1.27 371 2.26
 394  0.557  0.193  0.449-  71 1.24 371 2.32
 395  0.697  0.535  0.421-  78 1.27 372 2.26
 396  0.636  0.443  0.449-  78 1.24 372 2.32
 397  0.303  0.838  0.921-  85 1.27 364 2.26
 398  0.364  0.807  0.949-  85 1.24 364 2.32
 399  0.162  0.465  0.921-  92 1.27 365 2.26
 400  0.193  0.557  0.949-  92 1.24 365 2.32
 401  0.535  0.697  0.921-  99 1.27 366 2.26
 402  0.443  0.636  0.949-  99 1.24 366 2.32
 403  0.697  0.162  0.921- 106 1.27 361 2.26
 404  0.636  0.193  0.949- 106 1.24 361 2.32
 405  0.838  0.535  0.921- 113 1.27 362 2.26
 406  0.807  0.443  0.949- 113 1.24 362 2.32
 407  0.465  0.303  0.921- 120 1.27 363 2.26
 408  0.557  0.364  0.949- 120 1.24 363 2.32
 409  0.838  0.303  0.579- 127 1.27 370 2.26
 410  0.807  0.364  0.551- 127 1.24 370 2.32
 411  0.465  0.162  0.579- 134 1.27 371 2.26
 412  0.557  0.193  0.551- 134 1.24 371 2.32
 413  0.697  0.535  0.579- 141 1.27 372 2.26
 414  0.636  0.443  0.551- 141 1.24 372 2.32
 415  0.162  0.697  0.579- 148 1.27 367 2.26
 416  0.193  0.636  0.551- 148 1.24 367 2.32
 417  0.535  0.838  0.579- 155 1.27 368 2.26
 418  0.443  0.807  0.551- 155 1.24 368 2.32
 419  0.303  0.465  0.579- 162 1.27 369 2.26
 420  0.364  0.557  0.551- 162 1.24 369 2.32
 421  0.069  0.381  0.000- 172 1.26 365 2.36
 422  0.793  0.202  0.000- 169 1.25 361 2.31
 423  0.072  0.470  0.000- 172 1.26 365 2.21
 424  0.756  0.264  0.000- 169 1.25 361 2.25
 425  0.619  0.687  0.000- 178 1.26 366 2.36
 426  0.798  0.591  0.000- 175 1.25 362 2.31
 427  0.530  0.602  0.000- 178 1.26 366 2.21
 428  0.736  0.492  0.000- 175 1.25 362 2.25
 429  0.313  0.931  0.000- 184 1.26 364 2.36
 430  0.409  0.207  0.000- 181 1.25 363 2.31
 431  0.398  0.928  0.000- 184 1.26 364 2.21
 432  0.508  0.244  0.000- 181 1.25 363 2.25
 433  0.931  0.619  0.000- 190 1.26 362 2.36
 434  0.207  0.798  0.000- 187 1.25 364 2.31
 435  0.928  0.530  0.000- 190 1.26 362 2.21
 436  0.244  0.736  0.000- 187 1.25 364 2.25
 437  0.381  0.313  0.000- 196 1.26 363 2.36
 438  0.202  0.409  0.000- 193 1.25 365 2.31
 439  0.470  0.398  0.000- 196 1.26 363 2.21
 440  0.264  0.508  0.000- 193 1.25 365 2.25
 441  0.687  0.069  0.000- 202 1.26 361 2.36
 442  0.591  0.793  0.000- 199 1.25 366 2.31
 443  0.602  0.072  0.000- 202 1.26 361 2.21
 444  0.492  0.756  0.000- 199 1.25 366 2.25
 445  0.381  0.069  0.500- 208 1.26 371 2.36
 446  0.202  0.793  0.500- 205 1.25 367 2.31
 447  0.470  0.072  0.500- 208 1.26 371 2.21
 448  0.264  0.756  0.500- 205 1.25 367 2.25
 449  0.687  0.619  0.500- 214 1.26 372 2.36
 450  0.591  0.798  0.500- 211 1.25 368 2.31
 451  0.602  0.530  0.500- 214 1.26 372 2.21
 452  0.492  0.736  0.500- 211 1.25 368 2.25
 453  0.931  0.313  0.500- 220 1.26 370 2.36
 454  0.207  0.409  0.500- 217 1.25 369 2.31
 455  0.928  0.398  0.500- 220 1.26 370 2.21
 456  0.244  0.508  0.500- 217 1.25 369 2.25
 457  0.619  0.931  0.500- 226 1.26 368 2.36
 458  0.798  0.207  0.500- 223 1.25 370 2.31
 459  0.530  0.928  0.500- 226 1.26 368 2.21
 460  0.736  0.244  0.500- 223 1.25 370 2.25
 461  0.313  0.381  0.500- 232 1.26 369 2.36
 462  0.409  0.202  0.500- 229 1.25 371 2.31
 463  0.398  0.470  0.500- 232 1.26 369 2.21
 464  0.508  0.264  0.500- 229 1.25 371 2.25
 465  0.069  0.687  0.500- 238 1.26 367 2.36
 466  0.793  0.591  0.500- 235 1.25 372 2.31
 467  0.072  0.602  0.500- 238 1.26 367 2.21
 468  0.756  0.492  0.500- 235 1.25 372 2.25
 469  0.928  0.303  0.000- 171 1.70 170 1.71
 470  0.697  0.625  0.000- 177 1.70 176 1.71
 471  0.375  0.072  0.000- 183 1.70 182 1.71
 472  0.072  0.697  0.000- 189 1.70 188 1.71
 473  0.303  0.375  0.000- 195 1.70 194 1.71
 474  0.625  0.928  0.000- 201 1.70 200 1.71
 475  0.303  0.928  0.500- 207 1.70 206 1.71
 476  0.625  0.697  0.500- 213 1.70 212 1.71
 477  0.072  0.375  0.500- 219 1.70 218 1.71
 478  0.697  0.072  0.500- 225 1.70 224 1.71
 479  0.375  0.303  0.500- 231 1.70 230 1.71
 480  0.928  0.625  0.500- 237 1.70 236 1.71

  LATTYP: Found a hexagonal cell.
 ALAT       =    25.0980000000
 C/A-ratio  =     1.1334130210
  
  Lattice vectors:
  
 A1 = (  25.0980000000,   0.0000000000,   0.0000000000)
 A2 = ( -12.5490000000,  21.7355055842,   0.0000000000)
 A3 = (   0.0000000000,   0.0000000000,  28.4464000000)


Analysis of symmetry for initial positions (statically):
=====================================================================
 Subroutine PRICEL returns:
 Original cell was already a primitive cell.
 

 Routine SETGRP: Setting up the symmetry group for a 
 hexagonal supercell.


 Subroutine GETGRP returns: Found 24 space group operations
 (whereof 12 operations were pure point group operations)
 out of a pool of 24 trial point group operations.


The static configuration has the point symmetry C_6h.
 The point group associated with its full space group is D_6h.


Analysis of symmetry for dynamics (positions and initial velocities):
=====================================================================
 Subroutine PRICEL returns:
 Original cell was already a primitive cell.
 

 Routine SETGRP: Setting up the symmetry group for a 
 hexagonal supercell.


 Subroutine GETGRP returns: Found 24 space group operations
 (whereof 12 operations were pure point group operations)
 out of a pool of 24 trial point group operations.


The dynamic configuration has the point symmetry C_6h.
 The point group associated with its full space group is D_6h.


 Subroutine INISYM returns: Found 24 space group operations
 (whereof 12 operations are pure point group operations),
 and found     1 'primitive' translations


----------------------------------------------------------------------------------------

                                     Primitive cell                                     

  volume of cell :   15518.0152

  direct lattice vectors                    reciprocal lattice vectors
    25.098000000  0.000000000  0.000000000     0.039843812  0.023003836 -0.000000000
   -12.549000000 21.735505584  0.000000000     0.000000000  0.046007671  0.000000000
     0.000000000  0.000000000 28.446400000     0.000000000 -0.000000000  0.035153833

  length of vectors
    25.098000000 25.098000000 28.446400000     0.046007671  0.046007671  0.035153833

  position of ions in fractional coordinates (direct lattice)
     0.660750000  0.182510000  0.085390000
     0.646500000  0.193400000  0.134250000
     0.673300000  0.181400000  0.172420000
     0.606400000  0.214800000  0.141900000
     0.656300000  0.187400000  0.217980000
     0.590400000  0.221300000  0.187370000
     0.614200000  0.206500000  0.225570000
     0.817490000  0.478240000  0.085390000
     0.806600000  0.453100000  0.134250000
     0.818600000  0.491900000  0.172420000
     0.785200000  0.391600000  0.141900000
     0.812600000  0.468900000  0.217980000
     0.778700000  0.369100000  0.187370000
     0.793500000  0.407700000  0.225570000
     0.521760000  0.339250000  0.085390000
     0.546900000  0.353500000  0.134250000
     0.508100000  0.326700000  0.172420000
     0.608400000  0.393600000  0.141900000
     0.531100000  0.343700000  0.217980000
     0.630900000  0.409600000  0.187370000
     0.592300000  0.385800000  0.225570000
     0.339250000  0.817490000  0.085390000
     0.353500000  0.806600000  0.134250000
     0.326700000  0.818600000  0.172420000
     0.393600000  0.785200000  0.141900000
     0.343700000  0.812600000  0.217980000
     0.409600000  0.778700000  0.187370000
     0.385800000  0.793500000  0.225570000
     0.182510000  0.521760000  0.085390000
     0.193400000  0.546900000  0.134250000
     0.181400000  0.508100000  0.172420000
     0.214800000  0.608400000  0.141900000
     0.187400000  0.531100000  0.217980000
     0.221300000  0.630900000  0.187370000
     0.206500000  0.592300000  0.225570000
     0.478240000  0.660750000  0.085390000
     0.453100000  0.646500000  0.134250000
     0.491900000  0.673300000  0.172420000
     0.391600000  0.606400000  0.141900000
     0.468900000  0.656300000  0.217980000
     0.369100000  0.590400000  0.187370000
     0.407700000  0.614200000  0.225570000
     0.182510000  0.660750000  0.414610000
     0.193400000  0.646500000  0.365750000
     0.181400000  0.673300000  0.327580000
     0.214800000  0.606400000  0.358100000
     0.187400000  0.656300000  0.282020000
     0.221300000  0.590400000  0.312630000
     0.206500000  0.614200000  0.274430000
     0.478240000  0.817490000  0.414610000
     0.453100000  0.806600000  0.365750000
     0.491900000  0.818600000  0.327580000
     0.391600000  0.785200000  0.358100000
     0.468900000  0.812600000  0.282020000
     0.369100000  0.778700000  0.312630000
     0.407700000  0.793500000  0.274430000
     0.339250000  0.521760000  0.414610000
     0.353500000  0.546900000  0.365750000
     0.326700000  0.508100000  0.327580000
     0.393600000  0.608400000  0.358100000
     0.343700000  0.531100000  0.282020000
     0.409600000  0.630900000  0.312630000
     0.385800000  0.592300000  0.274430000
     0.817490000  0.339250000  0.414610000
     0.806600000  0.353500000  0.365750000
     0.818600000  0.326700000  0.327580000
     0.785200000  0.393600000  0.358100000
     0.812600000  0.343700000  0.282020000
     0.778700000  0.409600000  0.312630000
     0.793500000  0.385800000  0.274430000
     0.521760000  0.182510000  0.414610000
     0.546900000  0.193400000  0.365750000
     0.508100000  0.181400000  0.327580000
     0.608400000  0.214800000  0.358100000
     0.531100000  0.187400000  0.282020000
     0.630900000  0.221300000  0.312630000
     0.592300000  0.206500000  0.274430000
     0.660750000  0.478240000  0.414610000
     0.646500000  0.453100000  0.365750000
     0.673300000  0.491900000  0.327580000
     0.606400000  0.391600000  0.358100000
     0.656300000  0.468900000  0.282020000
     0.590400000  0.369100000  0.312630000
     0.614200000  0.407700000  0.274430000
     0.339250000  0.817490000  0.914610000
     0.353500000  0.806600000  0.865750000
     0.326700000  0.818600000  0.827580000
     0.393600000  0.785200000  0.858100000
     0.343700000  0.812600000  0.782020000
     0.409600000  0.778700000  0.812630000
     0.385800000  0.793500000  0.774430000
     0.182510000  0.521760000  0.914610000
     0.193400000  0.546900000  0.865750000
     0.181400000  0.508100000  0.827580000
     0.214800000  0.608400000  0.858100000
     0.187400000  0.531100000  0.782020000
     0.221300000  0.630900000  0.812630000
     0.206500000  0.592300000  0.774430000
     0.478240000  0.660750000  0.914610000
     0.453100000  0.646500000  0.865750000
     0.491900000  0.673300000  0.827580000
     0.391600000  0.606400000  0.858100000
     0.468900000  0.656300000  0.782020000
     0.369100000  0.590400000  0.812630000
     0.407700000  0.614200000  0.774430000
     0.660750000  0.182510000  0.914610000
     0.646500000  0.193400000  0.865750000
     0.673300000  0.181400000  0.827580000
     0.606400000  0.214800000  0.858100000
     0.656300000  0.187400000  0.782020000
     0.590400000  0.221300000  0.812630000
     0.614200000  0.206500000  0.774430000
     0.817490000  0.478240000  0.914610000
     0.806600000  0.453100000  0.865750000
     0.818600000  0.491900000  0.827580000
     0.785200000  0.391600000  0.858100000
     0.812600000  0.468900000  0.782020000
     0.778700000  0.369100000  0.812630000
     0.793500000  0.407700000  0.774430000
     0.521760000  0.339250000  0.914610000
     0.546900000  0.353500000  0.865750000
     0.508100000  0.326700000  0.827580000
     0.608400000  0.393600000  0.858100000
     0.531100000  0.343700000  0.782020000
     0.630900000  0.409600000  0.812630000
     0.592300000  0.385800000  0.774430000
     0.817490000  0.339250000  0.585390000
     0.806600000  0.353500000  0.634250000
     0.818600000  0.326700000  0.672420000
     0.785200000  0.393600000  0.641900000
     0.812600000  0.343700000  0.717980000
     0.778700000  0.409600000  0.687370000
     0.793500000  0.385800000  0.725570000
     0.521760000  0.182510000  0.585390000
     0.546900000  0.193400000  0.634250000
     0.508100000  0.181400000  0.672420000
     0.608400000  0.214800000  0.641900000
     0.531100000  0.187400000  0.717980000
     0.630900000  0.221300000  0.687370000
     0.592300000  0.206500000  0.725570000
     0.660750000  0.478240000  0.585390000
     0.646500000  0.453100000  0.634250000
     0.673300000  0.491900000  0.672420000
     0.606400000  0.391600000  0.641900000
     0.656300000  0.468900000  0.717980000
     0.590400000  0.369100000  0.687370000
     0.614200000  0.407700000  0.725570000
     0.182510000  0.660750000  0.585390000
     0.193400000  0.646500000  0.634250000
     0.181400000  0.673300000  0.672420000
     0.214800000  0.606400000  0.641900000
     0.187400000  0.656300000  0.717980000
     0.221300000  0.590400000  0.687370000
     0.206500000  0.614200000  0.725570000
     0.478240000  0.817490000  0.585390000
     0.453100000  0.806600000  0.634250000
     0.491900000  0.818600000  0.672420000
     0.391600000  0.785200000  0.641900000
     0.468900000  0.812600000  0.717980000
     0.369100000  0.778700000  0.687370000
     0.407700000  0.793500000  0.725570000
     0.339250000  0.521760000  0.585390000
     0.353500000  0.546900000  0.634250000
     0.326700000  0.508100000  0.672420000
     0.393600000  0.608400000  0.641900000
     0.343700000  0.531100000  0.717980000
     0.409600000  0.630900000  0.687370000
     0.385800000  0.592300000  0.725570000
     0.801000000  0.255400000  0.000000000
     0.863400000  0.309700000  0.000000000
     0.974500000  0.381000000  0.000000000
     0.041600000  0.412000000  0.000000000
     0.877500000  0.369100000  0.000000000
     0.939700000  0.409400000  0.000000000
     0.744600000  0.545600000  0.000000000
     0.690300000  0.553700000  0.000000000
     0.619000000  0.593500000  0.000000000
     0.588000000  0.629600000  0.000000000
     0.630900000  0.508400000  0.000000000
     0.590600000  0.530300000  0.000000000
     0.454400000  0.199000000  0.000000000
     0.446300000  0.136600000  0.000000000
     0.406500000  0.025500000  0.000000000
     0.370400000  0.958400000  0.000000000
     0.491600000  0.122500000  0.000000000
     0.469700000  0.060300000  0.000000000
     0.199000000  0.744600000  0.000000000
     0.136600000  0.690300000  0.000000000
     0.025500000  0.619000000  0.000000000
     0.958400000  0.588000000  0.000000000
     0.122500000  0.630900000  0.000000000
     0.060300000  0.590600000  0.000000000
     0.255400000  0.454400000  0.000000000
     0.309700000  0.446300000  0.000000000
     0.381000000  0.406500000  0.000000000
     0.412000000  0.370400000  0.000000000
     0.369100000  0.491600000  0.000000000
     0.409400000  0.469700000  0.000000000
     0.545600000  0.801000000  0.000000000
     0.553700000  0.863400000  0.000000000
     0.593500000  0.974500000  0.000000000
     0.629600000  0.041600000  0.000000000
     0.508400000  0.877500000  0.000000000
     0.530300000  0.939700000  0.000000000
     0.255400000  0.801000000  0.500000000
     0.309700000  0.863400000  0.500000000
     0.381000000  0.974500000  0.500000000
     0.412000000  0.041600000  0.500000000
     0.369100000  0.877500000  0.500000000
     0.409400000  0.939700000  0.500000000
     0.545600000  0.744600000  0.500000000
     0.553700000  0.690300000  0.500000000
     0.593500000  0.619000000  0.500000000
     0.629600000  0.588000000  0.500000000
     0.508400000  0.630900000  0.500000000
     0.530300000  0.590600000  0.500000000
     0.199000000  0.454400000  0.500000000
     0.136600000  0.446300000  0.500000000
     0.025500000  0.406500000  0.500000000
     0.958400000  0.370400000  0.500000000
     0.122500000  0.491600000  0.500000000
     0.060300000  0.469700000  0.500000000
     0.744600000  0.199000000  0.500000000
     0.690300000  0.136600000  0.500000000
     0.619000000  0.025500000  0.500000000
     0.588000000  0.958400000  0.500000000
     0.630900000  0.122500000  0.500000000
     0.590600000  0.060300000  0.500000000
     0.454400000  0.255400000  0.500000000
     0.446300000  0.309700000  0.500000000
     0.406500000  0.381000000  0.500000000
     0.370400000  0.412000000  0.500000000
     0.491600000  0.369100000  0.500000000
     0.469700000  0.409400000  0.500000000
     0.801000000  0.545600000  0.500000000
     0.863400000  0.553700000  0.500000000
     0.974500000  0.593500000  0.500000000
     0.041600000  0.629600000  0.500000000
     0.877500000  0.508400000  0.500000000
     0.939700000  0.530300000  0.500000000
     0.702400000  0.169300000  0.167600000
     0.589900000  0.225000000  0.116500000
     0.673700000  0.178500000  0.243500000
     0.563200000  0.235800000  0.192100000
     0.830700000  0.533100000  0.167600000
     0.775000000  0.364900000  0.116500000
     0.821500000  0.495200000  0.243500000
     0.764200000  0.327400000  0.192100000
     0.466900000  0.297600000  0.167600000
     0.635100000  0.410100000  0.116500000
     0.504800000  0.326300000  0.243500000
     0.672600000  0.436800000  0.192100000
     0.297600000  0.830700000  0.167600000
     0.410100000  0.775000000  0.116500000
     0.326300000  0.821500000  0.243500000
     0.436800000  0.764200000  0.192100000
     0.169300000  0.466900000  0.167600000
     0.225000000  0.635100000  0.116500000
     0.178500000  0.504800000  0.243500000
     0.235800000  0.672600000  0.192100000
     0.533100000  0.702400000  0.167600000
     0.364900000  0.589900000  0.116500000
     0.495200000  0.673700000  0.243500000
     0.327400000  0.563200000  0.192100000
     0.169300000  0.702400000  0.332400000
     0.225000000  0.589900000  0.383500000
     0.178500000  0.673700000  0.256500000
     0.235800000  0.563200000  0.307900000
     0.533100000  0.830700000  0.332400000
     0.364900000  0.775000000  0.383500000
     0.495200000  0.821500000  0.256500000
     0.327400000  0.764200000  0.307900000
     0.297600000  0.466900000  0.332400000
     0.410100000  0.635100000  0.383500000
     0.326300000  0.504800000  0.256500000
     0.436800000  0.672600000  0.307900000
     0.830700000  0.297600000  0.332400000
     0.775000000  0.410100000  0.383500000
     0.821500000  0.326300000  0.256500000
     0.764200000  0.436800000  0.307900000
     0.466900000  0.169300000  0.332400000
     0.635100000  0.225000000  0.383500000
     0.504800000  0.178500000  0.256500000
     0.672600000  0.235800000  0.307900000
     0.702400000  0.533100000  0.332400000
     0.589900000  0.364900000  0.383500000
     0.673700000  0.495200000  0.256500000
     0.563200000  0.327400000  0.307900000
     0.297600000  0.830700000  0.832400000
     0.410100000  0.775000000  0.883500000
     0.326300000  0.821500000  0.756500000
     0.436800000  0.764200000  0.807900000
     0.169300000  0.466900000  0.832400000
     0.225000000  0.635100000  0.883500000
     0.178500000  0.504800000  0.756500000
     0.235800000  0.672600000  0.807900000
     0.533100000  0.702400000  0.832400000
     0.364900000  0.589900000  0.883500000
     0.495200000  0.673700000  0.756500000
     0.327400000  0.563200000  0.807900000
     0.702400000  0.169300000  0.832400000
     0.589900000  0.225000000  0.883500000
     0.673700000  0.178500000  0.756500000
     0.563200000  0.235800000  0.807900000
     0.830700000  0.533100000  0.832400000
     0.775000000  0.364900000  0.883500000
     0.821500000  0.495200000  0.756500000
     0.764200000  0.327400000  0.807900000
     0.466900000  0.297600000  0.832400000
     0.635100000  0.410100000  0.883500000
     0.504800000  0.326300000  0.756500000
     0.672600000  0.436800000  0.807900000
     0.830700000  0.297600000  0.667600000
     0.775000000  0.410100000  0.616500000
     0.821500000  0.326300000  0.743500000
     0.764200000  0.436800000  0.692100000
     0.466900000  0.169300000  0.667600000
     0.635100000  0.225000000  0.616500000
     0.504800000  0.178500000  0.743500000
     0.672600000  0.235800000  0.692100000
     0.702400000  0.533100000  0.667600000
     0.589900000  0.364900000  0.616500000
     0.673700000  0.495200000  0.743500000
     0.563200000  0.327400000  0.692100000
     0.169300000  0.702400000  0.667600000
     0.225000000  0.589900000  0.616500000
     0.178500000  0.673700000  0.743500000
     0.235800000  0.563200000  0.692100000
     0.533100000  0.830700000  0.667600000
     0.364900000  0.775000000  0.616500000
     0.495200000  0.821500000  0.743500000
     0.327400000  0.764200000  0.692100000
     0.297600000  0.466900000  0.667600000
     0.410100000  0.635100000  0.616500000
     0.326300000  0.504800000  0.743500000
     0.436800000  0.672600000  0.692100000
     0.848100000  0.381400000  0.000000000
     0.956800000  0.451900000  0.000000000
     0.618600000  0.466700000  0.000000000
     0.548100000  0.504900000  0.000000000
     0.533300000  0.151900000  0.000000000
     0.495100000  0.043200000  0.000000000
     0.151900000  0.618600000  0.000000000
     0.043200000  0.548100000  0.000000000
     0.381400000  0.533300000  0.000000000
     0.451900000  0.495100000  0.000000000
     0.466700000  0.848100000  0.000000000
     0.504900000  0.956800000  0.000000000
     0.381400000  0.848100000  0.500000000
     0.451900000  0.956800000  0.500000000
     0.466700000  0.618600000  0.500000000
     0.504900000  0.548100000  0.500000000
     0.151900000  0.533300000  0.500000000
     0.043200000  0.495100000  0.500000000
     0.618600000  0.151900000  0.500000000
     0.548100000  0.043200000  0.500000000
     0.533300000  0.381400000  0.500000000
     0.495100000  0.451900000  0.500000000
     0.848100000  0.466700000  0.500000000
     0.956800000  0.504900000  0.500000000
     0.687850000  0.162940000  0.000000000
     0.837060000  0.524910000  0.000000000
     0.475090000  0.312150000  0.000000000
     0.312150000  0.837060000  0.000000000
     0.162940000  0.475090000  0.000000000
     0.524910000  0.687850000  0.000000000
     0.162940000  0.687850000  0.500000000
     0.524910000  0.837060000  0.500000000
     0.312150000  0.475090000  0.500000000
     0.837060000  0.312150000  0.500000000
     0.475090000  0.162940000  0.500000000
     0.687850000  0.524910000  0.500000000
     0.696870000  0.161530000  0.078910000
     0.636410000  0.193270000  0.051360000
     0.838470000  0.535340000  0.078910000
     0.806730000  0.443140000  0.051360000
     0.464660000  0.303130000  0.078910000
     0.556860000  0.363590000  0.051360000
     0.303130000  0.838470000  0.078910000
     0.363590000  0.806730000  0.051360000
     0.161530000  0.464660000  0.078910000
     0.193270000  0.556860000  0.051360000
     0.535340000  0.696870000  0.078910000
     0.443140000  0.636410000  0.051360000
     0.161530000  0.696870000  0.421090000
     0.193270000  0.636410000  0.448640000
     0.535340000  0.838470000  0.421090000
     0.443140000  0.806730000  0.448640000
     0.303130000  0.464660000  0.421090000
     0.363590000  0.556860000  0.448640000
     0.838470000  0.303130000  0.421090000
     0.806730000  0.363590000  0.448640000
     0.464660000  0.161530000  0.421090000
     0.556860000  0.193270000  0.448640000
     0.696870000  0.535340000  0.421090000
     0.636410000  0.443140000  0.448640000
     0.303130000  0.838470000  0.921090000
     0.363590000  0.806730000  0.948640000
     0.161530000  0.464660000  0.921090000
     0.193270000  0.556860000  0.948640000
     0.535340000  0.696870000  0.921090000
     0.443140000  0.636410000  0.948640000
     0.696870000  0.161530000  0.921090000
     0.636410000  0.193270000  0.948640000
     0.838470000  0.535340000  0.921090000
     0.806730000  0.443140000  0.948640000
     0.464660000  0.303130000  0.921090000
     0.556860000  0.363590000  0.948640000
     0.838470000  0.303130000  0.578910000
     0.806730000  0.363590000  0.551360000
     0.464660000  0.161530000  0.578910000
     0.556860000  0.193270000  0.551360000
     0.696870000  0.535340000  0.578910000
     0.636410000  0.443140000  0.551360000
     0.161530000  0.696870000  0.578910000
     0.193270000  0.636410000  0.551360000
     0.535340000  0.838470000  0.578910000
     0.443140000  0.806730000  0.551360000
     0.303130000  0.464660000  0.578910000
     0.363590000  0.556860000  0.551360000
     0.068680000  0.381320000  0.000000000
     0.793060000  0.202030000  0.000000000
     0.072370000  0.470080000  0.000000000
     0.756120000  0.264240000  0.000000000
     0.618680000  0.687360000  0.000000000
     0.797970000  0.591030000  0.000000000
     0.529920000  0.602290000  0.000000000
     0.735760000  0.491880000  0.000000000
     0.312640000  0.931320000  0.000000000
     0.408970000  0.206940000  0.000000000
     0.397710000  0.927630000  0.000000000
     0.508120000  0.243880000  0.000000000
     0.931320000  0.618680000  0.000000000
     0.206940000  0.797970000  0.000000000
     0.927630000  0.529920000  0.000000000
     0.243880000  0.735760000  0.000000000
     0.381320000  0.312640000  0.000000000
     0.202030000  0.408970000  0.000000000
     0.470080000  0.397710000  0.000000000
     0.264240000  0.508120000  0.000000000
     0.687360000  0.068680000  0.000000000
     0.591030000  0.793060000  0.000000000
     0.602290000  0.072370000  0.000000000
     0.491880000  0.756120000  0.000000000
     0.381320000  0.068680000  0.500000000
     0.202030000  0.793060000  0.500000000
     0.470080000  0.072370000  0.500000000
     0.264240000  0.756120000  0.500000000
     0.687360000  0.618680000  0.500000000
     0.591030000  0.797970000  0.500000000
     0.602290000  0.529920000  0.500000000
     0.491880000  0.735760000  0.500000000
     0.931320000  0.312640000  0.500000000
     0.206940000  0.408970000  0.500000000
     0.927630000  0.397710000  0.500000000
     0.243880000  0.508120000  0.500000000
     0.618680000  0.931320000  0.500000000
     0.797970000  0.206940000  0.500000000
     0.529920000  0.927630000  0.500000000
     0.735760000  0.243880000  0.500000000
     0.312640000  0.381320000  0.500000000
     0.408970000  0.202030000  0.500000000
     0.397710000  0.470080000  0.500000000
     0.508120000  0.264240000  0.500000000
     0.068680000  0.687360000  0.500000000
     0.793060000  0.591030000  0.500000000
     0.072370000  0.602290000  0.500000000
     0.756120000  0.491880000  0.500000000
     0.928130000  0.303180000  0.000000000
     0.696820000  0.624950000  0.000000000
     0.375050000  0.071870000  0.000000000
     0.071870000  0.696820000  0.000000000
     0.303180000  0.375050000  0.000000000
     0.624950000  0.928130000  0.000000000
     0.303180000  0.928130000  0.500000000
     0.624950000  0.696820000  0.500000000
     0.071870000  0.375050000  0.500000000
     0.696820000  0.071870000  0.500000000
     0.375050000  0.303180000  0.500000000
     0.928130000  0.624950000  0.500000000

  ion indices of the primitive-cell ions
   primitive index   ion index
                 1           1
                 2           2
                 3           3
                 4           4
                 5           5
                 6           6
                 7           7
                 8           8
                 9           9
                10          10
                11          11
                12          12
                13          13
                14          14
                15          15
                16          16
                17          17
                18          18
                19          19
                20          20
                21          21
                22          22
                23          23
                24          24
                25          25
                26          26
                27          27
                28          28
                29          29
                30          30
                31          31
                32          32
                33          33
                34          34
                35          35
                36          36
                37          37
                38          38
                39          39
                40          40
                41          41
                42          42
                43          43
                44          44
                45          45
                46          46
                47          47
                48          48
                49          49
                50          50
                51          51
                52          52
                53          53
                54          54
                55          55
                56          56
                57          57
                58          58
                59          59
                60          60
                61          61
                62          62
                63          63
                64          64
                65          65
                66          66
                67          67
                68          68
                69          69
                70          70
                71          71
                72          72
                73          73
                74          74
                75          75
                76          76
                77          77
                78          78
                79          79
                80          80
                81          81
                82          82
                83          83
                84          84
                85          85
                86          86
                87          87
                88          88
                89          89
                90          90
                91          91
                92          92
                93          93
                94          94
                95          95
                96          96
                97          97
                98          98
                99          99
               100         100
               101         101
               102         102
               103         103
               104         104
               105         105
               106         106
               107         107
               108         108
               109         109
               110         110
               111         111
               112         112
               113         113
               114         114
               115         115
               116         116
               117         117
               118         118
               119         119
               120         120
               121         121
               122         122
               123         123
               124         124
               125         125
               126         126
               127         127
               128         128
               129         129
               130         130
               131         131
               132         132
               133         133
               134         134
               135         135
               136         136
               137         137
               138         138
               139         139
               140         140
               141         141
               142         142
               143         143
               144         144
               145         145
               146         146
               147         147
               148         148
               149         149
               150         150
               151         151
               152         152
               153         153
               154         154
               155         155
               156         156
[...]
     -1.14949     12.24144      8.75865         6.576072     -5.516243     -1.156772
      2.95529     18.05568      9.45558         8.107039      2.568083      1.278538
     -0.56721     16.84502     10.90919        -5.048887     -2.023046      6.742615
      2.11953     17.85572      7.29650         5.137668      1.898942     -6.695602
     -1.37286     16.61027      8.75865        -8.065242     -2.936924     -1.156772
      1.61004     10.14831      9.45558        -1.829494     -8.304944      1.278538
      2.32282     13.80422     10.90919         0.772434      5.383987      6.742615
      1.85474     10.97208      7.29650        -0.924302     -5.398822     -6.695602
      2.52235     14.61930      8.75865         1.489171      8.453167     -1.156772
     17.11433      6.46849      9.45558         6.277545     -5.736860      1.278538
     14.30461      8.91373     10.90919        -4.276452      3.360941      6.742615
     16.52327      7.09230      7.29650         4.213366     -3.499880     -6.695602
     13.69849      9.49407      8.75865        -6.576072      5.516243     -1.156772
      9.59371      3.67982      9.45558        -8.107039     -2.568083      1.278538
     13.11621      4.89049     10.90919         5.048887      2.023046      6.742615
     10.42947      3.87979      7.29650        -5.137668     -1.898942     -6.695602
     13.92186      5.12523      8.75865         8.065242      2.936924     -1.156772
     10.93896     11.58720      9.45558         1.829494      8.304944      1.278538
     10.22618      7.93129     10.90919        -0.772434     -5.383987      6.742615
     10.69426     10.76342      7.29650         0.924302      5.398822     -6.695602
     10.02665      7.11620      8.75865        -1.489171     -8.453167     -1.156772
     -2.95529     18.05568     23.67878        -8.107039      2.568083      1.278538
      0.56721     16.84502     25.13239         5.048887     -2.023046      6.742615
     -2.11953     17.85572     21.51970        -5.137668      1.898942     -6.695602
      1.37286     16.61027     22.98185         8.065242     -2.936924     -1.156772
     -1.61004     10.14831     23.67878         1.829494     -8.304944      1.278538
     -2.32282     13.80422     25.13239        -0.772434      5.383987      6.742615
     -1.85474     10.97208     21.51970         0.924302     -5.398822     -6.695602
     -2.52235     14.61930     22.98185        -1.489171      8.453167     -1.156772
      4.56533     15.26702     23.67878         6.277545      5.736860      1.278538
      1.75561     12.82177     25.13239        -4.276452     -3.360941      6.742615
      3.97427     14.64321     21.51970         4.213366      3.499880     -6.695602
      1.14949     12.24144     22.98185        -6.576072     -5.516243     -1.156772
     15.50429      3.67982     23.67878         8.107039     -2.568083      1.278538
     11.98179      4.89049     25.13239        -5.048887      2.023046      6.742615
     14.66853      3.87979     21.51970         5.137668     -1.898942     -6.695602
     11.17614      5.12523     22.98185        -8.065242      2.936924     -1.156772
     14.15904     11.58720     23.67878        -1.829494      8.304944      1.278538
     14.87182      7.93129     25.13239         0.772434     -5.383987      6.742615
     14.40374     10.76342     21.51970        -0.924302      5.398822     -6.695602
     15.07135      7.11620     22.98185         1.489171     -8.453167     -1.156772
      7.98367      6.46849     23.67878        -6.277545     -5.736860      1.278538
     10.79339      8.91373     25.13239         4.276452      3.360941      6.742615
      8.57473      7.09230     21.51970        -4.213366     -3.499880     -6.695602
     11.39951      9.49407     22.98185         6.576072      5.516243     -1.156772
     17.11433      6.46849     18.99082         6.277545     -5.736860     -1.278538
     14.30461      8.91373     17.53721        -4.276452      3.360941     -6.742615
     16.52327      7.09230     21.14990         4.213366     -3.499880      6.695602
     13.69849      9.49407     19.68775        -6.576072      5.516243      1.156772
      9.59371      3.67982     18.99082        -8.107039     -2.568083     -1.278538
     13.11621      4.89049     17.53721         5.048887      2.023046     -6.742615
     10.42947      3.87979     21.14990        -5.137668     -1.898942      6.695602
     13.92186      5.12523     19.68775         8.065242      2.936924      1.156772
     10.93896     11.58720     18.99082         1.829494      8.304944     -1.278538
     10.22618      7.93129     17.53721        -0.772434     -5.383987     -6.742615
     10.69426     10.76342     21.14990         0.924302      5.398822      6.695602
     10.02665      7.11620     19.68775        -1.489171     -8.453167      1.156772
     -4.56533     15.26702     18.99082        -6.277545      5.736860     -1.278538
     -1.75561     12.82177     17.53721         4.276452     -3.360941     -6.742615
     -3.97427     14.64321     21.14990        -4.213366      3.499880      6.695602
     -1.14949     12.24144     19.68775         6.576072     -5.516243      1.156772
      2.95529     18.05568     18.99082         8.107039      2.568083     -1.278538
     -0.56721     16.84502     17.53721        -5.048887     -2.023046     -6.742615
      2.11953     17.85572     21.14990         5.137668      1.898942      6.695602
     -1.37286     16.61027     19.68775        -8.065242     -2.936924      1.156772
      1.61004     10.14831     18.99082        -1.829494     -8.304944     -1.278538
      2.32282     13.80422     17.53721         0.772434      5.383987     -6.742615
      1.85474     10.97208     21.14990        -0.924302     -5.398822      6.695602
      2.52235     14.61930     19.68775         1.489171      8.453167      1.156772
     16.49943      8.28992      0.00000        -8.186746      2.375647     -0.000000
     18.34287      9.82227      0.00000        -0.944723      8.548326     -0.000000
      9.66900     10.14396      0.00000         2.036002     -8.277753     -0.000000
      7.42022     10.97426      0.00000        -6.930706     -5.092317     -0.000000
     11.47857      3.30162      0.00000         6.150744      5.902106     -0.000000
     11.88390      0.93897      0.00000         7.875429     -3.456009     -0.000000
     -3.95043     13.44558      0.00000         8.186746     -2.375647     -0.000000
     -5.79387     11.91323      0.00000         0.944723     -8.548326     -0.000000
      2.88000     11.59155      0.00000        -2.036002      8.277753     -0.000000
      5.12878     10.76125      0.00000         6.930706      5.092317     -0.000000
      1.07043     18.43388      0.00000        -6.150744     -5.902106     -0.000000
      0.66510     20.79653      0.00000        -7.875429      3.456009     -0.000000
     -1.07043     18.43388     14.22320         6.150744     -5.902106     -0.000000
     -0.66510     20.79653     14.22320         7.875429      3.456009     -0.000000
      3.95043     13.44558     14.22320        -8.186746     -2.375647     -0.000000
      5.79387     11.91323     14.22320        -0.944723     -8.548326     -0.000000
     -2.88000     11.59155     14.22320         2.036002      8.277753     -0.000000
     -5.12878     10.76125     14.22320        -6.930706      5.092317     -0.000000
     13.61943      3.30162     14.22320        -6.150744      5.902106     -0.000000
     13.21410      0.93897     14.22320        -7.875429     -3.456009     -0.000000
      8.59857      8.28992     14.22320         8.186746      2.375647     -0.000000
      6.75513      9.82227     14.22320         0.944723      8.548326     -0.000000
     15.42900     10.14396     14.22320        -2.036002     -8.277753     -0.000000
     17.67778     10.97426     14.22320         6.930706     -5.092317     -0.000000
     15.21893      3.54158      0.00000         0.280619     -0.046952     -0.000000
     14.42144     11.40918      0.00000        -0.099648      0.266499     -0.000000
      8.00664      6.78474      0.00000        -0.180971     -0.219547     -0.000000
     -2.66993     18.19392      0.00000        -0.280619      0.046952     -0.000000
     -1.87244     10.32632      0.00000         0.099648     -0.266499     -0.000000
      4.54236     14.95077      0.00000         0.180971      0.219547     -0.000000
     -4.54236     14.95077     14.22320        -0.180971      0.219547     -0.000000
      2.66993     18.19392     14.22320         0.280619      0.046952     -0.000000
      1.87244     10.32632     14.22320        -0.099648     -0.266499     -0.000000
     17.09136      6.78474     14.22320         0.180971     -0.219547     -0.000000
      9.87907      3.54158     14.22320        -0.280619     -0.046952     -0.000000
     10.67656     11.40918     14.22320         0.099648      0.266499     -0.000000
     15.46300      3.51094      2.24471         1.011366     -0.341875      0.215379
     13.54727      4.20082      1.46101        -1.308644      0.337654     -1.262373
     14.32594     11.63589      2.24471        -0.209610      1.046806      0.215379
     14.68635      9.63187      1.46101         0.361905     -1.302146     -1.262373
      7.85806      6.58868      2.24471        -0.801755     -0.704931      0.215379
      9.41338      7.90281      1.46101         0.946739      0.964492     -1.262373
     -2.91400     18.22457      2.24471        -1.011366      0.341875      0.215379
     -0.99827     17.53468      1.46101         1.308644     -0.337654     -1.262373
     -1.77694     10.09962      2.24471         0.209610     -1.046806      0.215379
     -2.13735     12.10363      1.46101        -0.361905      1.302146     -1.262373
      4.69094     15.14682      2.24471         0.801755      0.704931      0.215379
      3.13562     13.83269      1.46101        -0.946739     -0.964492     -1.262373
     -4.69094     15.14682     11.97849        -0.801755      0.704931     -0.215379
     -3.13562     13.83269     12.76219         0.946739     -0.964492      1.262373
      2.91400     18.22457     11.97849         1.011366      0.341875     -0.215379
      0.99827     17.53468     12.76219        -1.308644     -0.337654      1.262373
      1.77694     10.09962     11.97849        -0.209610     -1.046806     -0.215379
      2.13735     12.10363     12.76219         0.361905      1.302146      1.262373
     17.23994      6.58868     11.97849         0.801755     -0.704931     -0.215379
     15.68462      7.90281     12.76219        -0.946739      0.964492      1.262373
      9.63500      3.51094     11.97849        -1.011366     -0.341875     -0.215379
     11.55073      4.20082     12.76219         1.308644      0.337654      1.262373
     10.77206     11.63589     11.97849         0.209610      1.046806     -0.215379
     10.41165      9.63187     12.76219        -0.361905     -1.302146      1.262373
     -2.91400     18.22457     26.20169        -1.011366      0.341875     -0.215379
     -0.99827     17.53468     26.98539         1.308644     -0.337654      1.262373
     -1.77694     10.09962     26.20169         0.209610     -1.046806     -0.215379
     -2.13735     12.10363     26.98539        -0.361905      1.302146      1.262373
      4.69094     15.14682     26.20169         0.801755      0.704931     -0.215379
      3.13562     13.83269     26.98539        -0.946739     -0.964492      1.262373
     15.46300      3.51094     26.20169         1.011366     -0.341875     -0.215379
     13.54727      4.20082     26.98539        -1.308644      0.337654      1.262373
     14.32594     11.63589     26.20169        -0.209610      1.046806     -0.215379
     14.68635      9.63187     26.98539         0.361905     -1.302146      1.262373
      7.85806      6.58868     26.20169        -0.801755     -0.704931     -0.215379
      9.41338      7.90281     26.98539         0.946739      0.964492      1.262373
     17.23994      6.58868     16.46791         0.801755     -0.704931      0.215379
     15.68462      7.90281     15.68421        -0.946739      0.964492     -1.262373
      9.63500      3.51094     16.46791        -1.011366     -0.341875      0.215379
     11.55073      4.20082     15.68421         1.308644      0.337654     -1.262373
     10.77206     11.63589     16.46791         0.209610      1.046806      0.215379
     10.41165      9.63187     15.68421        -0.361905     -1.302146     -1.262373
     -4.69094     15.14682     16.46791        -0.801755      0.704931      0.215379
     -3.13562     13.83269     15.68421         0.946739     -0.964492     -1.262373
      2.91400     18.22457     16.46791         1.011366      0.341875      0.215379
      0.99827     17.53468     15.68421        -1.308644     -0.337654     -1.262373
      1.77694     10.09962     16.46791        -0.209610     -1.046806      0.215379
      2.13735     12.10363     15.68421         0.361905      1.302146     -1.262373
     -3.06145      8.28818      0.00000         0.826555     -0.755530     -0.000000
     17.36895      4.39122      0.00000         0.903934     -1.319503     -0.000000
     -4.08269     10.21743      0.00000        -0.734157      1.570362     -0.000000
     15.66115      5.74339      0.00000        -1.790968      0.745878     -0.000000
      6.90195     14.94012      0.00000         0.241031      1.093583     -0.000000
     12.61062     12.84634      0.00000         0.690756      1.442581     -0.000000
      5.74179     13.09108      0.00000        -0.992894     -1.420980     -0.000000
     12.29350     10.69126      0.00000         0.249535     -1.923963     -0.000000
     -3.84050     20.24271      0.00000        -1.067586     -0.338052     -0.000000
      7.66744      4.49795      0.00000        -1.594690     -0.123078     -0.000000
     -1.65910     20.16251      0.00000         1.727052     -0.149382     -0.000000
      9.69235      5.30086      0.00000         1.541433      1.178085     -0.000000
     15.61045     13.44732      0.00000        -0.826555      0.755530     -0.000000
     -4.81995     17.34428      0.00000        -0.903934      1.319503     -0.000000
     16.63169     11.51808      0.00000         0.734157     -1.570362     -0.000000
     -3.11215     15.99212      0.00000         1.790968     -0.745878     -0.000000
      5.64705      6.79539      0.00000        -0.241031     -1.093583     -0.000000
     -0.06162      8.88917      0.00000        -0.690756     -1.442581     -0.000000
      6.80721      8.64443      0.00000         0.992894      1.420980     -0.000000
      0.25550     11.04425      0.00000        -0.249535      1.923963     -0.000000
     16.38950      1.49279      0.00000         1.067586      0.338052     -0.000000
      4.88156     17.23756      0.00000         1.594690      0.123078     -0.000000
     14.20810      1.57300      0.00000        -1.727052      0.149382     -0.000000
      2.85665     16.43465      0.00000        -1.541433     -1.178085     -0.000000
      8.70850      1.49279     14.22320        -1.067586      0.338052     -0.000000
     -4.88156     17.23756     14.22320        -1.594690      0.123078     -0.000000
     10.88990      1.57300     14.22320         1.727052      0.149382     -0.000000
     -2.85665     16.43465     14.22320         1.541433     -1.178085     -0.000000
      9.48755     13.44732     14.22320         0.826555      0.755530     -0.000000
      4.81995     17.34428     14.22320         0.903934      1.319503     -0.000000
      8.46631     11.51808     14.22320        -0.734157     -1.570362     -0.000000
      3.11215     15.99212     14.22320        -1.790968     -0.745878     -0.000000
     19.45095      6.79539     14.22320         0.241031     -1.093583     -0.000000
      0.06162      8.88917     14.22320         0.690756     -1.442581     -0.000000
     18.29079      8.64443     14.22320        -0.992894      1.420980     -0.000000
     -0.25550     11.04425     14.22320         0.249535      1.923963     -0.000000
      3.84050     20.24271     14.22320         1.067586     -0.338052     -0.000000
     17.43056      4.49795     14.22320         1.594690     -0.123078     -0.000000
      1.65910     20.16251     14.22320        -1.727052     -0.149382     -0.000000
     15.40565      5.30086     14.22320        -1.541433      1.178085     -0.000000
      3.06145      8.28818     14.22320        -0.826555     -0.755530     -0.000000
      7.72905      4.39122     14.22320        -0.903934     -1.319503     -0.000000
      4.08269     10.21743     14.22320         0.734157      1.570362     -0.000000
      9.43685      5.74339     14.22320         1.790968      0.745878     -0.000000
     -6.90195     14.94012     14.22320        -0.241031      1.093583     -0.000000
     12.48738     12.84634     14.22320        -0.690756      1.442581     -0.000000
     -5.74179     13.09108     14.22320         0.992894     -1.420980     -0.000000
     12.80450     10.69126     14.22320        -0.249535     -1.923963     -0.000000
     19.48960      6.58977      0.00000         0.734029     -0.879580     -0.000000
      9.64629     13.58360      0.00000         0.394724      1.075477     -0.000000
      8.51111      1.56213      0.00000        -1.128753     -0.195898     -0.000000
     -6.94060     15.14574      0.00000        -0.734029      0.879580     -0.000000
      2.90271      8.15190      0.00000        -0.394724     -1.075477     -0.000000
      4.03789     20.17337      0.00000         1.128753      0.195898     -0.000000
     -4.03789     20.17337     14.22320        -1.128753      0.195898     -0.000000
      6.94060     15.14574     14.22320         0.734029      0.879580     -0.000000
     -2.90271      8.15190     14.22320         0.394724     -1.075477     -0.000000
     16.58689      1.56213     14.22320         1.128753     -0.195898     -0.000000
      5.60840      6.58977     14.22320        -0.734029     -0.879580     -0.000000
     15.45171     13.58360     14.22320        -0.394724      1.075477     -0.000000
 -----------------------------------------------------------------------------------
    total drift:                                0.000000      0.000000     -0.000000


--------------------------------------------------------------------------------------------------------



  FREE ENERGIE OF THE ION-ELECTRON SYSTEM (eV)
  ---------------------------------------------------
  free  energy   TOTEN  =     -3260.36698398 eV

  energy  without entropy=    -3259.74957576  energy(sigma->0) =    -3260.05827987



--------------------------------------------------------------------------------------------------------


    POTLOK:  cpu time    1.0822: real time    1.0829


--------------------------------------------------------------------------------------------------------


     LOOP+:  cpu time13732.1007: real time13736.3715
    4ORBIT:  cpu time    0.0000: real time    0.0000

 total amount of memory used by VASP MPI-rank0  1133231. kBytes
=======================================================================

   base      :      30000. kBytes
   nonlr-proj:      34576. kBytes
   fftplans  :      39483. kBytes
   grid      :      81002. kBytes
   one-center:        486. kBytes
   wavefun   :     947684. kBytes

  
  
 General timing and accounting informations for this job:
 ========================================================
  
                  Total CPU time used (sec):    14139.319
                            User time (sec):    14127.607
                          System time (sec):       11.713
                         Elapsed time (sec):    14145.111
  
                   Maximum memory used (kb):     1293940.
                   Average memory used (kb):          N/A
  
                          Minor page faults:      2565913
                          Major page faults:            4
                 Voluntary context switches:         8386
